
Host: MacBook-Pro-van-Xeno.local

Timers On : Tue Mar  3 11:39:12 2020
Timers Off: Tue Mar  3 11:39:15 2020

Wall Time:        3.40 seconds

                                                       Time (seconds)
Module                                       User      System        Wall        Calls

--------------------------------------------------------------------------------------

**************************************************************************************
