
Host: MacBook-Pro-van-Xeno.local

Timers On : Mon Mar 16 13:52:40 2020
Timers Off: Mon Mar 16 13:52:41 2020

Wall Time:        0.48 seconds

                                                       Time (seconds)
Module                                       User      System        Wall        Calls

--------------------------------------------------------------------------------------

**************************************************************************************

Host: MacBook-Pro-van-Xeno.local

Timers On : Mon Mar 16 13:52:54 2020
Timers Off: Mon Mar 16 13:52:54 2020

Wall Time:        0.78 seconds

                                                       Time (seconds)
Module                                       User      System        Wall        Calls

--------------------------------------------------------------------------------------

**************************************************************************************

Host: MacBook-Pro-van-Xeno.local

Timers On : Mon Mar 16 14:13:49 2020
Timers Off: Mon Mar 16 14:13:50 2020

Wall Time:        0.74 seconds

                                                       Time (seconds)
Module                                       User      System        Wall        Calls

--------------------------------------------------------------------------------------

**************************************************************************************

Host: MacBook-Pro-van-Xeno.local

Timers On : Mon Mar 16 14:14:21 2020
Timers Off: Mon Mar 16 14:14:22 2020

Wall Time:        0.48 seconds

                                                       Time (seconds)
Module                                       User      System        Wall        Calls

--------------------------------------------------------------------------------------

**************************************************************************************

Host: MacBook-Pro-van-Xeno.local

Timers On : Mon Mar 16 14:14:52 2020
Timers Off: Mon Mar 16 14:14:52 2020

Wall Time:        0.42 seconds

                                                       Time (seconds)
Module                                       User      System        Wall        Calls

--------------------------------------------------------------------------------------

**************************************************************************************

Host: MacBook-Pro-van-Xeno.local

Timers On : Mon Mar 16 14:15:28 2020
Timers Off: Mon Mar 16 14:15:28 2020

Wall Time:        0.44 seconds

                                                       Time (seconds)
Module                                       User      System        Wall        Calls

--------------------------------------------------------------------------------------

**************************************************************************************

Host: MacBook-Pro-van-Xeno.local

Timers On : Mon Mar 16 14:16:24 2020
Timers Off: Mon Mar 16 14:16:24 2020

Wall Time:        0.40 seconds

                                                       Time (seconds)
Module                                       User      System        Wall        Calls

--------------------------------------------------------------------------------------

**************************************************************************************

Host: MacBook-Pro-van-Xeno.local

Timers On : Mon Mar 16 14:19:18 2020
Timers Off: Mon Mar 16 14:19:18 2020

Wall Time:        0.43 seconds

                                                       Time (seconds)
Module                                       User      System        Wall        Calls

--------------------------------------------------------------------------------------

**************************************************************************************

Host: MacBook-Pro-van-Xeno.local

Timers On : Mon Mar 16 14:20:23 2020
Timers Off: Mon Mar 16 14:20:24 2020

Wall Time:        0.45 seconds

                                                       Time (seconds)
Module                                       User      System        Wall        Calls

--------------------------------------------------------------------------------------

**************************************************************************************

Host: MacBook-Pro-van-Xeno.local

Timers On : Mon Mar 16 14:28:26 2020
Timers Off: Mon Mar 16 14:28:27 2020

Wall Time:        0.62 seconds

                                                       Time (seconds)
Module                                       User      System        Wall        Calls

--------------------------------------------------------------------------------------

**************************************************************************************

Host: MacBook-Pro-van-Xeno.local

Timers On : Wed Mar 25 18:56:02 2020
Timers Off: Wed Mar 25 18:56:02 2020

Wall Time:        0.29 seconds

                                                       Time (seconds)
Module                                       User      System        Wall        Calls

--------------------------------------------------------------------------------------

**************************************************************************************

Host: MacBook-Pro-van-Xeno.local

Timers On : Wed Mar 25 18:56:26 2020
Timers Off: Wed Mar 25 18:56:26 2020

Wall Time:        0.29 seconds

                                                       Time (seconds)
Module                                       User      System        Wall        Calls

--------------------------------------------------------------------------------------

**************************************************************************************

Host: MacBook-Pro-van-Xeno.local

Timers On : Tue Apr  7 11:22:28 2020
Timers Off: Tue Apr  7 11:22:28 2020

Wall Time:        0.38 seconds

                                                       Time (seconds)
Module                                       User      System        Wall        Calls

--------------------------------------------------------------------------------------

**************************************************************************************

Host: MacBook-Pro-van-Xeno.local

Timers On : Tue Apr  7 11:50:50 2020
Timers Off: Tue Apr  7 11:50:50 2020

Wall Time:        0.39 seconds

                                                       Time (seconds)
Module                                       User      System        Wall        Calls

--------------------------------------------------------------------------------------

**************************************************************************************
