
Host: MacBook-Pro-van-Xeno.local

Timers On : Mon Feb 17 16:08:21 2020
Timers Off: Mon Feb 17 16:08:24 2020

Wall Time:        2.55 seconds

                                                       Time (seconds)
Module                                       User      System        Wall        Calls

--------------------------------------------------------------------------------------

**************************************************************************************
