
Host: MacBook-Pro-van-Xeno.local

Timers On : Thu Dec  5 12:39:19 2019
Timers Off: Thu Dec  5 12:39:24 2019

Wall Time:        4.55 seconds

                                                       Time (seconds)
Module                                       User      System        Wall        Calls

--------------------------------------------------------------------------------------

**************************************************************************************
