
Host: MacBook-Pro-van-Xeno.local

Timers On : Thu Dec  5 12:39:19 2019
Timers Off: Thu Dec  5 12:39:24 2019

Wall Time:        4.55 seconds

                                                       Time (seconds)
Module                                       User      System        Wall        Calls

--------------------------------------------------------------------------------------

**************************************************************************************

Host: MacBook-Pro-van-Xeno.local

Timers On : Mon Feb 10 16:17:28 2020
Timers Off: Mon Feb 10 16:17:30 2020

Wall Time:        1.33 seconds

                                                       Time (seconds)
Module                                       User      System        Wall        Calls

--------------------------------------------------------------------------------------

**************************************************************************************

Host: MacBook-Pro-van-Xeno.local

Timers On : Mon Feb 10 16:19:17 2020
Timers Off: Mon Feb 10 16:19:20 2020

Wall Time:        3.02 seconds

                                                       Time (seconds)
Module                                       User      System        Wall        Calls

--------------------------------------------------------------------------------------

**************************************************************************************

Host: MacBook-Pro-van-Xeno.local

Timers On : Mon Feb 10 16:20:44 2020
Timers Off: Mon Feb 10 16:20:46 2020

Wall Time:        2.61 seconds

                                                       Time (seconds)
Module                                       User      System        Wall        Calls

--------------------------------------------------------------------------------------

**************************************************************************************

Host: MacBook-Pro-van-Xeno.local

Timers On : Sat Feb 22 13:36:57 2020
Timers Off: Sat Feb 22 13:36:58 2020

Wall Time:        1.40 seconds

                                                       Time (seconds)
Module                                       User      System        Wall        Calls

--------------------------------------------------------------------------------------

**************************************************************************************

Host: MacBook-Pro-van-Xeno.local

Timers On : Wed Apr 15 16:10:50 2020
Timers Off: Wed Apr 15 16:10:51 2020

Wall Time:        1.03 seconds

                                                       Time (seconds)
Module                                       User      System        Wall        Calls

--------------------------------------------------------------------------------------

**************************************************************************************

Host: MacBook-Pro-van-Xeno.local

Timers On : Wed Apr 15 16:22:15 2020
Timers Off: Wed Apr 15 16:22:18 2020

Wall Time:        3.61 seconds

                                                       Time (seconds)
Module                                       User      System        Wall        Calls

--------------------------------------------------------------------------------------

**************************************************************************************

Host: MacBook-Pro-van-Xeno.local

Timers On : Wed Apr 15 16:30:52 2020
Timers Off: Wed Apr 15 16:30:53 2020

Wall Time:        1.34 seconds

                                                       Time (seconds)
Module                                       User      System        Wall        Calls

--------------------------------------------------------------------------------------

**************************************************************************************

Host: MacBook-Pro-van-Xeno.local

Timers On : Wed Apr 15 16:34:38 2020
Timers Off: Wed Apr 15 16:34:42 2020

Wall Time:        4.02 seconds

                                                       Time (seconds)
Module                                       User      System        Wall        Calls

--------------------------------------------------------------------------------------

**************************************************************************************

Host: MacBook-Pro-van-Xeno.local

Timers On : Wed Apr 15 16:35:25 2020
Timers Off: Wed Apr 15 16:35:27 2020

Wall Time:        2.58 seconds

                                                       Time (seconds)
Module                                       User      System        Wall        Calls

--------------------------------------------------------------------------------------

**************************************************************************************

Host: MacBook-Pro-van-Xeno.local

Timers On : Fri Apr 17 12:29:50 2020
Timers Off: Fri Apr 17 12:29:53 2020

Wall Time:        3.17 seconds

                                                       Time (seconds)
Module                                       User      System        Wall        Calls

--------------------------------------------------------------------------------------

**************************************************************************************

Host: MacBook-Pro-van-Xeno.local

Timers On : Thu Apr 23 16:45:39 2020
Timers Off: Thu Apr 23 16:45:41 2020

Wall Time:        2.62 seconds

                                                       Time (seconds)
Module                                       User      System        Wall        Calls

--------------------------------------------------------------------------------------

**************************************************************************************

Host: MacBook-Pro-van-Xeno.local

Timers On : Thu Apr 23 16:48:03 2020
Timers Off: Thu Apr 23 16:48:07 2020

Wall Time:        3.26 seconds

                                                       Time (seconds)
Module                                       User      System        Wall        Calls

--------------------------------------------------------------------------------------

**************************************************************************************

Host: MacBook-Pro-van-Xeno.local

Timers On : Thu Apr 23 16:52:20 2020
Timers Off: Thu Apr 23 16:52:23 2020

Wall Time:        2.93 seconds

                                                       Time (seconds)
Module                                       User      System        Wall        Calls

--------------------------------------------------------------------------------------

**************************************************************************************

Host: MacBook-Pro-van-Xeno.local

Timers On : Thu Apr 23 16:54:00 2020
Timers Off: Thu Apr 23 16:54:02 2020

Wall Time:        1.75 seconds

                                                       Time (seconds)
Module                                       User      System        Wall        Calls

--------------------------------------------------------------------------------------

**************************************************************************************

Host: MacBook-Pro-van-Xeno.local

Timers On : Thu Apr 23 17:25:24 2020
Timers Off: Thu Apr 23 17:25:28 2020

Wall Time:        3.15 seconds

                                                       Time (seconds)
Module                                       User      System        Wall        Calls

--------------------------------------------------------------------------------------

**************************************************************************************
